 Gaussian 09, Revision D.01,
 Gaussian 09:  ES64L-G09RevD.01 24-Apr-2013

 ------------------------------------------------------------------
 # opt b3lyp/6-31+g(d,p) iop(6/33=2,6/42=6) pop=mk scf=tight nosymm
 ------------------------------------------------------------------

 -------------------
 Title Card Required
 -------------------
 Symbolic Z-matrix:
 Charge =  0 Multiplicity = 1

 SCF Done:  E(RB3LYP) =  -2046.87154337     A.U. after   43 cycles
 SCF Done:  E(RB3LYP) =  -2046.87156842     A.U. after   22 cycles
 SCF Done:  E(RB3LYP) =  -2046.87157973     A.U. after   22 cycles
 SCF Done:  E(RB3LYP) =  -2046.87158363     A.U. after   19 cycles
 SCF Done:  E(RB3LYP) =  -2046.87158466     A.U. after   15 cycles
 SCF Done:  E(RB3LYP) =  -2046.87158477     A.U. after   20 cycles
 SCF Done:  E(RB3LYP) =  -2046.87158478     A.U. after   13 cycles
 SCF Done:  E(RB3LYP) =  -2046.87158479     A.U. after   20 cycles
 SCF Done:  E(RB3LYP) =  -2046.87158480     A.U. after   13 cycles
 SCF Done:  E(RB3LYP) =  -2046.87158480     A.U. after   14 cycles
 SCF Done:  E(RB3LYP) =  -2046.87158480     A.U. after   14 cycles
 Optimization completed.
    -- Stationary point found.

                          Input orientation:
 ---------------------------------------------------------------------
 Center     Atomic      Atomic             Coordinates (Angstroms)
 Number     Number       Type             X           Y           Z
 ---------------------------------------------------------------------
      1          6           0       -0.907943    1.599740   -0.346817
      2          6           0       -0.768688    2.201302   -1.600919
      3          6           0       -1.432073    2.322085    0.728708
      4          6           0       -1.149964    3.527030   -1.778252
      5          1           0       -0.398990    1.620383   -2.439159
      6          6           0       -1.803154    3.651386    0.554332
      7          1           0       -1.555193    1.841492    1.693475
      8          6           0       -1.667361    4.276485   -0.701937
      9          1           0       -1.061301    3.984780   -2.757123
     10          1           0       -2.204237    4.210527    1.392139
     11          6           0        1.309959   -0.065401    0.362226
     12          6           0        1.653097    0.033667    1.713773
     13          6           0        2.305270   -0.135725   -0.616365
     14          6           0        2.992853    0.066949    2.086110
     15          1           0        0.874192    0.046537    2.468741
     16          6           0        3.645274   -0.092985   -0.244624
     17          1           0        2.029052   -0.231860   -1.661033
     18          6           0        4.010844    0.010464    1.112639
     19          1           0        3.257993    0.123163    3.135986
     20          1           0        4.415561   -0.143342   -1.006045
     21          7           0       -2.050440    5.621395   -0.880648
     22          7           0        5.369097    0.048165    1.490541
     23          6           0       -1.350900    6.462119   -1.796835
     24          6           0       -2.061868    7.290823   -2.678869
     25          6           0        0.052875    6.485170   -1.816218
     26          6           0       -1.377672    8.128589   -3.560611
     27          1           0       -3.146903    7.276967   -2.666954
     28          6           0        0.729523    7.313227   -2.712494
     29          1           0        0.607870    5.854314   -1.129329
     30          6           0        0.019895    8.141777   -3.587085
     31          1           0       -1.941479    8.764296   -4.237316
     32          1           0        1.815774    7.319768   -2.716203
     33          1           0        0.549072    8.790029   -4.278794
     34          6           0       -3.144122    6.167909   -0.143008
     35          6           0       -3.014025    7.411830    0.493338
     36          6           0       -4.363027    5.476909   -0.057971
     37          6           0       -4.088816    7.955283    1.198523
     38          1           0       -2.072751    7.948247    0.429237
     39          6           0       -5.427472    6.018885    0.663401
     40          1           0       -4.471171    4.518641   -0.555998
     41          6           0       -5.298595    7.261185    1.292200
     42          1           0       -3.974310    8.919301    1.685871
     43          1           0       -6.364594    5.472795    0.721744
     44          1           0       -6.131047    7.683174    1.846912
     45          6           0        6.346352   -0.689639    0.756818
     46          6           0        6.114196   -2.029678    0.408659
     47          6           0        7.558514   -0.085159    0.389470
     48          6           0        7.075764   -2.745631   -0.305262
     49          1           0        5.182086   -2.504407    0.697916
     50          6           0        8.522028   -0.812998   -0.310248
     51          1           0        7.741466    0.950317    0.657954
     52          6           0        8.285386   -2.144073   -0.665788
     53          1           0        6.882338   -3.781639   -0.568149
     54          1           0        9.456065   -0.332644   -0.587351
     55          1           0        9.034299   -2.706108   -1.215325
     56          6           0        5.787950    0.820306    2.614710
     57          6           0        5.333832    2.138172    2.783721
     58          6           0        6.673640    0.274843    3.557116
     59          6           0        5.749491    2.888742    3.884009
     60          1           0        4.657325    2.568643    2.052329
     61          6           0        7.097714    1.037786    4.646006
     62          1           0        7.027534   -0.743212    3.430750
     63          6           0        6.635520    2.345632    4.819410
     64          1           0        5.389344    3.906832    4.001531
     65          1           0        7.783020    0.601938    5.367347
     66          1           0        6.962479    2.934417    5.670975
     67         16           0       -0.420604   -0.114359   -0.119340
     68          8           0       -1.179482   -0.633806    1.035098
     69          8           0       -0.485814   -0.765475   -1.442400
 ---------------------------------------------------------------------

 Alpha  occ. eigenvalues --  -89.09479 -19.13922 -19.13918 -14.38497 -14.38464
 Alpha  occ. eigenvalues --  -10.25551 -10.25528 -10.24735 -10.24719 -10.24667
 Alpha  occ. eigenvalues --  -10.24648 -10.22358 -10.22338 -10.21536 -10.21530
 Alpha  occ. eigenvalues --  -10.21528 -10.21519 -10.20824 -10.20812 -10.20782
 Alpha  occ. eigenvalues --  -10.20773 -10.20760 -10.20759 -10.20753 -10.20744
 Alpha  occ. eigenvalues --  -10.20740 -10.20735 -10.20723 -10.20694 -10.20582
 Alpha  occ. eigenvalues --  -10.20569 -10.20517 -10.20516 -10.20507 -10.20505
 Alpha  occ. eigenvalues --  -10.20475 -10.20461 -10.20424 -10.20415 -10.20396
 Alpha  occ. eigenvalues --  -10.20346  -8.12174  -6.08633  -6.08569  -6.08494
 Alpha  occ. eigenvalues --   -1.09382  -0.99272  -0.98399  -0.98374  -0.87861
 Alpha  occ. eigenvalues --   -0.87640  -0.87098  -0.87073  -0.85446  -0.85309
 Alpha  occ. eigenvalues --   -0.79095  -0.77862  -0.77537  -0.77512  -0.76376
 Alpha  occ. eigenvalues --   -0.76338  -0.76153  -0.76009  -0.75987  -0.75953
 Alpha  occ. eigenvalues --   -0.73572  -0.72526  -0.68153  -0.64701  -0.64548
 Alpha  occ. eigenvalues --   -0.64449  -0.62581  -0.62412  -0.62297  -0.61705
 Alpha  occ. eigenvalues --   -0.61685  -0.61624  -0.60367  -0.58738  -0.58023
 Alpha  occ. eigenvalues --   -0.55391  -0.55031  -0.54837  -0.54793  -0.53396
 Alpha  occ. eigenvalues --   -0.51145  -0.50552  -0.49887  -0.49729  -0.48836
 Alpha  occ. eigenvalues --   -0.48489  -0.48210  -0.47049  -0.46757  -0.46561
 Alpha  occ. eigenvalues --   -0.46464  -0.45902  -0.45765  -0.45244  -0.45219
 Alpha  occ. eigenvalues --   -0.44754  -0.44457  -0.44184  -0.43994  -0.43647
 Alpha  occ. eigenvalues --   -0.43621  -0.43490  -0.43462  -0.43329  -0.41439
 Alpha  occ. eigenvalues --   -0.41331  -0.39636  -0.39253  -0.38519  -0.38316
 Alpha  occ. eigenvalues --   -0.38297  -0.38281  -0.37795  -0.37777  -0.37361
 Alpha  occ. eigenvalues --   -0.37323  -0.36778  -0.36681  -0.35854  -0.35833
 Alpha  occ. eigenvalues --   -0.35819  -0.35785  -0.33140  -0.32316  -0.32270
 Alpha  occ. eigenvalues --   -0.31334  -0.29854  -0.28854  -0.28449  -0.27801
 Alpha  occ. eigenvalues --   -0.27627  -0.27595  -0.27542  -0.27205  -0.26639
 Alpha  occ. eigenvalues --   -0.26505  -0.26419  -0.26257  -0.20936  -0.20212
 Alpha virt. eigenvalues --   -0.05746  -0.04347  -0.03915  -0.03527  -0.03463
 Alpha virt. eigenvalues --   -0.03447  -0.02170  -0.01748  -0.01714  -0.01354
 Alpha virt. eigenvalues --   -0.00942  -0.00331  -0.00262   0.00384   0.00412

 Mulliken charges:
               1
     1  C    0.053976
     2  C   -0.024997
     3  C    0.014776
     4  C   -0.099907
     5  H    0.155250
     6  C   -0.057416
     7  H    0.154592
     8  C   -0.637164
     9  H    0.132777
    10  H    0.133605
    11  C    0.050995
    12  C   -0.025524
    13  C    0.011225
    14  C   -0.087375
    15  H    0.154597
    16  C   -0.051972
    17  H    0.155355
    18  C   -0.658660
    19  H    0.132629
    20  H    0.133522
    21  N    0.188073
    22  N    0.184819
    23  C   -0.531083
    24  C    0.210976
    25  C    0.290100
    26  C   -0.207916
    27  H    0.127255
    28  C   -0.277523
    29  H    0.129027
    30  C   -0.075718
    31  H    0.129238
    32  H    0.127996
    33  H    0.125736
    34  C   -0.347628
    35  C    0.161543
    36  C    0.146155
    37  C   -0.205397
    38  H    0.125898
    39  C   -0.231190
    40  H    0.132675
    41  C   -0.128074
    42  H    0.128691
    43  H    0.130410
    44  H    0.126225
    45  C   -0.340603
    46  C    0.149943
    47  C    0.163093
    48  C   -0.226179
    49  H    0.132686
    50  C   -0.209341
    51  H    0.125953
    52  C   -0.130084
    53  H    0.130306
    54  H    0.128544
    55  H    0.126094
    56  C   -0.535357
    57  C    0.289875
    58  C    0.209789
    59  C   -0.272361
    60  H    0.128621
    61  C   -0.206113
    62  H    0.127348
    63  C   -0.076786
    64  H    0.127971
    65  H    0.129218
    66  H    0.125693
    67  S    0.670275
    68  O   -0.433015
    69  O   -0.436140
 Sum of Mulliken charges =  -0.00000

 Dipole moment (field-independent basis, Debye):
    X=              3.9091    Y=              5.6484    Z=              0.8155  Tot=              6.9174
 Quadrupole moment (field-independent basis, Debye-Ang):
   XX=           -213.7671   YY=           -217.6321   ZZ=           -236.5926
   XY=            -12.9089   XZ=              1.8589   YZ=             -0.7840

 ESP charges:
               1
     1  C   -0.095410
     2  C   -0.138402
     3  C   -0.117398
     4  C   -0.257494
     5  H    0.159955
     6  C   -0.282924
     7  H    0.156015
     8  C    0.516696
     9  H    0.144550
    10  H    0.148102
    11  C   -0.076779
    12  C   -0.160490
    13  C   -0.137778
    14  C   -0.227356
    15  H    0.163528
    16  C   -0.250092
    17  H    0.159360
    18  C    0.479437
    19  H    0.140004
    20  H    0.141466
    21  N   -0.749959
    22  N   -0.772063
    23  C    0.519699
    24  C   -0.270823
    25  C   -0.255896
    26  C   -0.096229
    27  H    0.137595
    28  C   -0.108004
    29  H    0.130862
    30  C   -0.187212
    31  H    0.129303
    32  H    0.132244
    33  H    0.135352
    34  C    0.597547
    35  C   -0.330067
    36  C   -0.311833
    37  C   -0.083718
    38  H    0.154495
    39  C   -0.089939
    40  H    0.163549
    41  C   -0.186045
    42  H    0.128931
    43  H    0.128252
    44  H    0.133756
    45  C    0.619407
    46  C   -0.327056
    47  C   -0.330653
    48  C   -0.080954
    49  H    0.168355
    50  C   -0.081571
    51  H    0.152514
    52  C   -0.192495
    53  H    0.126099
    54  H    0.127803
    55  H    0.134633
    56  C    0.555728
    57  C   -0.273933
    58  C   -0.284610
    59  C   -0.107829
    60  H    0.136846
    61  C   -0.093835
    62  H    0.138462
    63  C   -0.186563
    64  H    0.133165
    65  H    0.129391
    66  H    0.134748
    67  S    0.967213
    68  O   -0.539794
    69  O   -0.539860
 Sum of ESP charges =   0.00000

 Normal termination of Gaussian 09 at Sat Jul 31 18:39:12 2021.
